Title: ** sch_path: /home/pedersen/projects/ihp-analogacademy/modules/module_1_bandgap_reference/part_1_ota/schematic/ota_testbench.sch
Date: Mon Dec  9 09:24:06  2024
Plotname: Operating Point
Flags: real
No. Variables: 969
No. Points: 1
Variables:
	0	v(x1.net3)	voltage
	1	i(l6)	current
	2	i(l13)	current
	3	i(l16)	current
	4	v(n.x1.xm1.nsg13_lv_pmos#bd)	voltage
	5	v(n.x1.xm1.nsg13_lv_pmos#bi)	voltage
	6	v(n.x1.xm1.nsg13_lv_pmos#bp)	voltage
	7	v(n.x1.xm1.nsg13_lv_pmos#bs)	voltage
	8	v(n.x1.xm1.nsg13_lv_pmos#di)	voltage
	9	v(n.x1.xm1.nsg13_lv_pmos#gp)	voltage
	10	v(n.x1.xm1.nsg13_lv_pmos#int1)	voltage
	11	v(n.x1.xm1.nsg13_lv_pmos#int2)	voltage
	12	v(n.x1.xm1.nsg13_lv_pmos#int3)	voltage
	13	v(n.x1.xm1.nsg13_lv_pmos#int4)	voltage
	14	v(n.x1.xm1.nsg13_lv_pmos#int5)	voltage
	15	v(n.x1.xm1.nsg13_lv_pmos#int6)	voltage
	16	v(n.x1.xm1.nsg13_lv_pmos#int7)	voltage
	17	v(n.x1.xm1.nsg13_lv_pmos#int8)	voltage
	18	v(n.x1.xm1.nsg13_lv_pmos#int9)	voltage
	19	v(n.x1.xm1.nsg13_lv_pmos#noi)	voltage
	20	v(n.x1.xm1.nsg13_lv_pmos#si)	voltage
	21	v(n.x1.xm1.nsg13_lv_pmos#flow(noii))	voltage
	22	v(n.x1.xm1.nsg13_lv_pmos#flow(res1))	voltage
	23	v(n.x1.xm1.nsg13_lv_pmos#flow(res2))	voltage
	24	v(n.x1.xm1.nsg13_lv_pmos#flow(res3))	voltage
	25	v(n.x1.xm1.nsg13_lv_pmos#flow(res4))	voltage
	26	v(n.x1.xm1.nsg13_lv_pmos#flow(res5))	voltage
	27	v(n.x1.xm1.nsg13_lv_pmos#flow(res6))	voltage
	28	v(n.x1.xm1.nsg13_lv_pmos#flow(res7))	voltage
	29	v(n.x1.xm1.nsg13_lv_pmos#flow(res8))	voltage
	30	v(n.x1.xm1.nsg13_lv_pmos#flow(res9))	voltage
	31	v(n.x1.xm1.nsg13_lv_pmos#flow(spline1))	voltage
	32	v(n.x1.xm1.nsg13_lv_pmos#flow(spline2))	voltage
	33	v(n.x1.xm1.nsg13_lv_pmos#flow(spline3))	voltage
	34	v(n.x1.xm1.nsg13_lv_pmos#flow(spline4))	voltage
	35	v(n.x1.xm1.nsg13_lv_pmos#flow(spline5))	voltage
	36	v(n.x1.xm1.nsg13_lv_pmos#flow(spline6))	voltage
	37	v(n.x1.xm1.nsg13_lv_pmos#flow(spline7))	voltage
	38	v(n.x1.xm1.nsg13_lv_pmos#flow(spline8))	voltage
	39	v(n.x1.xm1.nsg13_lv_pmos#flow(spline9))	voltage
	40	v(n.x1.xm1.nsg13_lv_pmos#implicit_equation_0)	voltage
	41	v(n.x1.xm1.nsg13_lv_pmos#implicit_equation_1)	voltage
	42	v(n.x1.xm1.nsg13_lv_pmos#implicit_equation_2)	voltage
	43	v(n.x1.xm2.nsg13_lv_pmos#bd)	voltage
	44	v(n.x1.xm2.nsg13_lv_pmos#bi)	voltage
	45	v(n.x1.xm2.nsg13_lv_pmos#bp)	voltage
	46	v(n.x1.xm2.nsg13_lv_pmos#bs)	voltage
	47	v(n.x1.xm2.nsg13_lv_pmos#di)	voltage
	48	v(n.x1.xm2.nsg13_lv_pmos#gp)	voltage
	49	v(n.x1.xm2.nsg13_lv_pmos#int1)	voltage
	50	v(n.x1.xm2.nsg13_lv_pmos#int2)	voltage
	51	v(n.x1.xm2.nsg13_lv_pmos#int3)	voltage
	52	v(n.x1.xm2.nsg13_lv_pmos#int4)	voltage
	53	v(n.x1.xm2.nsg13_lv_pmos#int5)	voltage
	54	v(n.x1.xm2.nsg13_lv_pmos#int6)	voltage
	55	v(n.x1.xm2.nsg13_lv_pmos#int7)	voltage
	56	v(n.x1.xm2.nsg13_lv_pmos#int8)	voltage
	57	v(n.x1.xm2.nsg13_lv_pmos#int9)	voltage
	58	v(n.x1.xm2.nsg13_lv_pmos#noi)	voltage
	59	v(n.x1.xm2.nsg13_lv_pmos#si)	voltage
	60	v(n.x1.xm2.nsg13_lv_pmos#flow(noii))	voltage
	61	v(n.x1.xm2.nsg13_lv_pmos#flow(res1))	voltage
	62	v(n.x1.xm2.nsg13_lv_pmos#flow(res2))	voltage
	63	v(n.x1.xm2.nsg13_lv_pmos#flow(res3))	voltage
	64	v(n.x1.xm2.nsg13_lv_pmos#flow(res4))	voltage
	65	v(n.x1.xm2.nsg13_lv_pmos#flow(res5))	voltage
	66	v(n.x1.xm2.nsg13_lv_pmos#flow(res6))	voltage
	67	v(n.x1.xm2.nsg13_lv_pmos#flow(res7))	voltage
	68	v(n.x1.xm2.nsg13_lv_pmos#flow(res8))	voltage
	69	v(n.x1.xm2.nsg13_lv_pmos#flow(res9))	voltage
	70	v(n.x1.xm2.nsg13_lv_pmos#flow(spline1))	voltage
	71	v(n.x1.xm2.nsg13_lv_pmos#flow(spline2))	voltage
	72	v(n.x1.xm2.nsg13_lv_pmos#flow(spline3))	voltage
	73	v(n.x1.xm2.nsg13_lv_pmos#flow(spline4))	voltage
	74	v(n.x1.xm2.nsg13_lv_pmos#flow(spline5))	voltage
	75	v(n.x1.xm2.nsg13_lv_pmos#flow(spline6))	voltage
	76	v(n.x1.xm2.nsg13_lv_pmos#flow(spline7))	voltage
	77	v(n.x1.xm2.nsg13_lv_pmos#flow(spline8))	voltage
	78	v(n.x1.xm2.nsg13_lv_pmos#flow(spline9))	voltage
	79	v(n.x1.xm2.nsg13_lv_pmos#implicit_equation_0)	voltage
	80	v(n.x1.xm2.nsg13_lv_pmos#implicit_equation_1)	voltage
	81	v(n.x1.xm2.nsg13_lv_pmos#implicit_equation_2)	voltage
	82	v(n.x1.xm3.nsg13_lv_nmos#bd)	voltage
	83	v(n.x1.xm3.nsg13_lv_nmos#bi)	voltage
	84	v(n.x1.xm3.nsg13_lv_nmos#bp)	voltage
	85	v(n.x1.xm3.nsg13_lv_nmos#bs)	voltage
	86	v(n.x1.xm3.nsg13_lv_nmos#di)	voltage
	87	v(n.x1.xm3.nsg13_lv_nmos#gp)	voltage
	88	v(n.x1.xm3.nsg13_lv_nmos#int1)	voltage
	89	v(n.x1.xm3.nsg13_lv_nmos#int2)	voltage
	90	v(n.x1.xm3.nsg13_lv_nmos#int3)	voltage
	91	v(n.x1.xm3.nsg13_lv_nmos#int4)	voltage
	92	v(n.x1.xm3.nsg13_lv_nmos#int5)	voltage
	93	v(n.x1.xm3.nsg13_lv_nmos#int6)	voltage
	94	v(n.x1.xm3.nsg13_lv_nmos#int7)	voltage
	95	v(n.x1.xm3.nsg13_lv_nmos#int8)	voltage
	96	v(n.x1.xm3.nsg13_lv_nmos#int9)	voltage
	97	v(n.x1.xm3.nsg13_lv_nmos#noi)	voltage
	98	v(n.x1.xm3.nsg13_lv_nmos#si)	voltage
	99	v(n.x1.xm3.nsg13_lv_nmos#flow(noii))	voltage
	100	v(n.x1.xm3.nsg13_lv_nmos#flow(res1))	voltage
	101	v(n.x1.xm3.nsg13_lv_nmos#flow(res2))	voltage
	102	v(n.x1.xm3.nsg13_lv_nmos#flow(res3))	voltage
	103	v(n.x1.xm3.nsg13_lv_nmos#flow(res4))	voltage
	104	v(n.x1.xm3.nsg13_lv_nmos#flow(res5))	voltage
	105	v(n.x1.xm3.nsg13_lv_nmos#flow(res6))	voltage
	106	v(n.x1.xm3.nsg13_lv_nmos#flow(res7))	voltage
	107	v(n.x1.xm3.nsg13_lv_nmos#flow(res8))	voltage
	108	v(n.x1.xm3.nsg13_lv_nmos#flow(res9))	voltage
	109	v(n.x1.xm3.nsg13_lv_nmos#flow(spline1))	voltage
	110	v(n.x1.xm3.nsg13_lv_nmos#flow(spline2))	voltage
	111	v(n.x1.xm3.nsg13_lv_nmos#flow(spline3))	voltage
	112	v(n.x1.xm3.nsg13_lv_nmos#flow(spline4))	voltage
	113	v(n.x1.xm3.nsg13_lv_nmos#flow(spline5))	voltage
	114	v(n.x1.xm3.nsg13_lv_nmos#flow(spline6))	voltage
	115	v(n.x1.xm3.nsg13_lv_nmos#flow(spline7))	voltage
	116	v(n.x1.xm3.nsg13_lv_nmos#flow(spline8))	voltage
	117	v(n.x1.xm3.nsg13_lv_nmos#flow(spline9))	voltage
	118	v(n.x1.xm3.nsg13_lv_nmos#implicit_equation_0)	voltage
	119	v(n.x1.xm3.nsg13_lv_nmos#implicit_equation_1)	voltage
	120	v(n.x1.xm3.nsg13_lv_nmos#implicit_equation_2)	voltage
	121	v(n.x1.xm4.nsg13_lv_nmos#bd)	voltage
	122	v(n.x1.xm4.nsg13_lv_nmos#bi)	voltage
	123	v(n.x1.xm4.nsg13_lv_nmos#bp)	voltage
	124	v(n.x1.xm4.nsg13_lv_nmos#bs)	voltage
	125	v(n.x1.xm4.nsg13_lv_nmos#di)	voltage
	126	v(n.x1.xm4.nsg13_lv_nmos#gp)	voltage
	127	v(n.x1.xm4.nsg13_lv_nmos#int1)	voltage
	128	v(n.x1.xm4.nsg13_lv_nmos#int2)	voltage
	129	v(n.x1.xm4.nsg13_lv_nmos#int3)	voltage
	130	v(n.x1.xm4.nsg13_lv_nmos#int4)	voltage
	131	v(n.x1.xm4.nsg13_lv_nmos#int5)	voltage
	132	v(n.x1.xm4.nsg13_lv_nmos#int6)	voltage
	133	v(n.x1.xm4.nsg13_lv_nmos#int7)	voltage
	134	v(n.x1.xm4.nsg13_lv_nmos#int8)	voltage
	135	v(n.x1.xm4.nsg13_lv_nmos#int9)	voltage
	136	v(n.x1.xm4.nsg13_lv_nmos#noi)	voltage
	137	v(n.x1.xm4.nsg13_lv_nmos#si)	voltage
	138	v(n.x1.xm4.nsg13_lv_nmos#flow(noii))	voltage
	139	v(n.x1.xm4.nsg13_lv_nmos#flow(res1))	voltage
	140	v(n.x1.xm4.nsg13_lv_nmos#flow(res2))	voltage
	141	v(n.x1.xm4.nsg13_lv_nmos#flow(res3))	voltage
	142	v(n.x1.xm4.nsg13_lv_nmos#flow(res4))	voltage
	143	v(n.x1.xm4.nsg13_lv_nmos#flow(res5))	voltage
	144	v(n.x1.xm4.nsg13_lv_nmos#flow(res6))	voltage
	145	v(n.x1.xm4.nsg13_lv_nmos#flow(res7))	voltage
	146	v(n.x1.xm4.nsg13_lv_nmos#flow(res8))	voltage
	147	v(n.x1.xm4.nsg13_lv_nmos#flow(res9))	voltage
	148	v(n.x1.xm4.nsg13_lv_nmos#flow(spline1))	voltage
	149	v(n.x1.xm4.nsg13_lv_nmos#flow(spline2))	voltage
	150	v(n.x1.xm4.nsg13_lv_nmos#flow(spline3))	voltage
	151	v(n.x1.xm4.nsg13_lv_nmos#flow(spline4))	voltage
	152	v(n.x1.xm4.nsg13_lv_nmos#flow(spline5))	voltage
	153	v(n.x1.xm4.nsg13_lv_nmos#flow(spline6))	voltage
	154	v(n.x1.xm4.nsg13_lv_nmos#flow(spline7))	voltage
	155	v(n.x1.xm4.nsg13_lv_nmos#flow(spline8))	voltage
	156	v(n.x1.xm4.nsg13_lv_nmos#flow(spline9))	voltage
	157	v(n.x1.xm4.nsg13_lv_nmos#implicit_equation_0)	voltage
	158	v(n.x1.xm4.nsg13_lv_nmos#implicit_equation_1)	voltage
	159	v(n.x1.xm4.nsg13_lv_nmos#implicit_equation_2)	voltage
	160	v(n.x1.xm5.nsg13_lv_pmos#bd)	voltage
	161	v(n.x1.xm5.nsg13_lv_pmos#bi)	voltage
	162	v(n.x1.xm5.nsg13_lv_pmos#bp)	voltage
	163	v(n.x1.xm5.nsg13_lv_pmos#bs)	voltage
	164	v(n.x1.xm5.nsg13_lv_pmos#di)	voltage
	165	v(n.x1.xm5.nsg13_lv_pmos#gp)	voltage
	166	v(n.x1.xm5.nsg13_lv_pmos#int1)	voltage
	167	v(n.x1.xm5.nsg13_lv_pmos#int2)	voltage
	168	v(n.x1.xm5.nsg13_lv_pmos#int3)	voltage
	169	v(n.x1.xm5.nsg13_lv_pmos#int4)	voltage
	170	v(n.x1.xm5.nsg13_lv_pmos#int5)	voltage
	171	v(n.x1.xm5.nsg13_lv_pmos#int6)	voltage
	172	v(n.x1.xm5.nsg13_lv_pmos#int7)	voltage
	173	v(n.x1.xm5.nsg13_lv_pmos#int8)	voltage
	174	v(n.x1.xm5.nsg13_lv_pmos#int9)	voltage
	175	v(n.x1.xm5.nsg13_lv_pmos#noi)	voltage
	176	v(n.x1.xm5.nsg13_lv_pmos#si)	voltage
	177	v(n.x1.xm5.nsg13_lv_pmos#flow(noii))	voltage
	178	v(n.x1.xm5.nsg13_lv_pmos#flow(res1))	voltage
	179	v(n.x1.xm5.nsg13_lv_pmos#flow(res2))	voltage
	180	v(n.x1.xm5.nsg13_lv_pmos#flow(res3))	voltage
	181	v(n.x1.xm5.nsg13_lv_pmos#flow(res4))	voltage
	182	v(n.x1.xm5.nsg13_lv_pmos#flow(res5))	voltage
	183	v(n.x1.xm5.nsg13_lv_pmos#flow(res6))	voltage
	184	v(n.x1.xm5.nsg13_lv_pmos#flow(res7))	voltage
	185	v(n.x1.xm5.nsg13_lv_pmos#flow(res8))	voltage
	186	v(n.x1.xm5.nsg13_lv_pmos#flow(res9))	voltage
	187	v(n.x1.xm5.nsg13_lv_pmos#flow(spline1))	voltage
	188	v(n.x1.xm5.nsg13_lv_pmos#flow(spline2))	voltage
	189	v(n.x1.xm5.nsg13_lv_pmos#flow(spline3))	voltage
	190	v(n.x1.xm5.nsg13_lv_pmos#flow(spline4))	voltage
	191	v(n.x1.xm5.nsg13_lv_pmos#flow(spline5))	voltage
	192	v(n.x1.xm5.nsg13_lv_pmos#flow(spline6))	voltage
	193	v(n.x1.xm5.nsg13_lv_pmos#flow(spline7))	voltage
	194	v(n.x1.xm5.nsg13_lv_pmos#flow(spline8))	voltage
	195	v(n.x1.xm5.nsg13_lv_pmos#flow(spline9))	voltage
	196	v(n.x1.xm5.nsg13_lv_pmos#implicit_equation_0)	voltage
	197	v(n.x1.xm5.nsg13_lv_pmos#implicit_equation_1)	voltage
	198	v(n.x1.xm5.nsg13_lv_pmos#implicit_equation_2)	voltage
	199	v(n.x1.xm6.nsg13_lv_nmos#bd)	voltage
	200	v(n.x1.xm6.nsg13_lv_nmos#bi)	voltage
	201	v(n.x1.xm6.nsg13_lv_nmos#bp)	voltage
	202	v(n.x1.xm6.nsg13_lv_nmos#bs)	voltage
	203	v(n.x1.xm6.nsg13_lv_nmos#di)	voltage
	204	v(n.x1.xm6.nsg13_lv_nmos#gp)	voltage
	205	v(n.x1.xm6.nsg13_lv_nmos#int1)	voltage
	206	v(n.x1.xm6.nsg13_lv_nmos#int2)	voltage
	207	v(n.x1.xm6.nsg13_lv_nmos#int3)	voltage
	208	v(n.x1.xm6.nsg13_lv_nmos#int4)	voltage
	209	v(n.x1.xm6.nsg13_lv_nmos#int5)	voltage
	210	v(n.x1.xm6.nsg13_lv_nmos#int6)	voltage
	211	v(n.x1.xm6.nsg13_lv_nmos#int7)	voltage
	212	v(n.x1.xm6.nsg13_lv_nmos#int8)	voltage
	213	v(n.x1.xm6.nsg13_lv_nmos#int9)	voltage
	214	v(n.x1.xm6.nsg13_lv_nmos#noi)	voltage
	215	v(n.x1.xm6.nsg13_lv_nmos#si)	voltage
	216	v(n.x1.xm6.nsg13_lv_nmos#flow(noii))	voltage
	217	v(n.x1.xm6.nsg13_lv_nmos#flow(res1))	voltage
	218	v(n.x1.xm6.nsg13_lv_nmos#flow(res2))	voltage
	219	v(n.x1.xm6.nsg13_lv_nmos#flow(res3))	voltage
	220	v(n.x1.xm6.nsg13_lv_nmos#flow(res4))	voltage
	221	v(n.x1.xm6.nsg13_lv_nmos#flow(res5))	voltage
	222	v(n.x1.xm6.nsg13_lv_nmos#flow(res6))	voltage
	223	v(n.x1.xm6.nsg13_lv_nmos#flow(res7))	voltage
	224	v(n.x1.xm6.nsg13_lv_nmos#flow(res8))	voltage
	225	v(n.x1.xm6.nsg13_lv_nmos#flow(res9))	voltage
	226	v(n.x1.xm6.nsg13_lv_nmos#flow(spline1))	voltage
	227	v(n.x1.xm6.nsg13_lv_nmos#flow(spline2))	voltage
	228	v(n.x1.xm6.nsg13_lv_nmos#flow(spline3))	voltage
	229	v(n.x1.xm6.nsg13_lv_nmos#flow(spline4))	voltage
	230	v(n.x1.xm6.nsg13_lv_nmos#flow(spline5))	voltage
	231	v(n.x1.xm6.nsg13_lv_nmos#flow(spline6))	voltage
	232	v(n.x1.xm6.nsg13_lv_nmos#flow(spline7))	voltage
	233	v(n.x1.xm6.nsg13_lv_nmos#flow(spline8))	voltage
	234	v(n.x1.xm6.nsg13_lv_nmos#flow(spline9))	voltage
	235	v(n.x1.xm6.nsg13_lv_nmos#implicit_equation_0)	voltage
	236	v(n.x1.xm6.nsg13_lv_nmos#implicit_equation_1)	voltage
	237	v(n.x1.xm6.nsg13_lv_nmos#implicit_equation_2)	voltage
	238	v(n.x1.xm7.nsg13_lv_pmos#bd)	voltage
	239	v(n.x1.xm7.nsg13_lv_pmos#bi)	voltage
	240	v(n.x1.xm7.nsg13_lv_pmos#bp)	voltage
	241	v(n.x1.xm7.nsg13_lv_pmos#bs)	voltage
	242	v(n.x1.xm7.nsg13_lv_pmos#di)	voltage
	243	v(n.x1.xm7.nsg13_lv_pmos#gp)	voltage
	244	v(n.x1.xm7.nsg13_lv_pmos#int1)	voltage
	245	v(n.x1.xm7.nsg13_lv_pmos#int2)	voltage
	246	v(n.x1.xm7.nsg13_lv_pmos#int3)	voltage
	247	v(n.x1.xm7.nsg13_lv_pmos#int4)	voltage
	248	v(n.x1.xm7.nsg13_lv_pmos#int5)	voltage
	249	v(n.x1.xm7.nsg13_lv_pmos#int6)	voltage
	250	v(n.x1.xm7.nsg13_lv_pmos#int7)	voltage
	251	v(n.x1.xm7.nsg13_lv_pmos#int8)	voltage
	252	v(n.x1.xm7.nsg13_lv_pmos#int9)	voltage
	253	v(n.x1.xm7.nsg13_lv_pmos#noi)	voltage
	254	v(n.x1.xm7.nsg13_lv_pmos#si)	voltage
	255	v(n.x1.xm7.nsg13_lv_pmos#flow(noii))	voltage
	256	v(n.x1.xm7.nsg13_lv_pmos#flow(res1))	voltage
	257	v(n.x1.xm7.nsg13_lv_pmos#flow(res2))	voltage
	258	v(n.x1.xm7.nsg13_lv_pmos#flow(res3))	voltage
	259	v(n.x1.xm7.nsg13_lv_pmos#flow(res4))	voltage
	260	v(n.x1.xm7.nsg13_lv_pmos#flow(res5))	voltage
	261	v(n.x1.xm7.nsg13_lv_pmos#flow(res6))	voltage
	262	v(n.x1.xm7.nsg13_lv_pmos#flow(res7))	voltage
	263	v(n.x1.xm7.nsg13_lv_pmos#flow(res8))	voltage
	264	v(n.x1.xm7.nsg13_lv_pmos#flow(res9))	voltage
	265	v(n.x1.xm7.nsg13_lv_pmos#flow(spline1))	voltage
	266	v(n.x1.xm7.nsg13_lv_pmos#flow(spline2))	voltage
	267	v(n.x1.xm7.nsg13_lv_pmos#flow(spline3))	voltage
	268	v(n.x1.xm7.nsg13_lv_pmos#flow(spline4))	voltage
	269	v(n.x1.xm7.nsg13_lv_pmos#flow(spline5))	voltage
	270	v(n.x1.xm7.nsg13_lv_pmos#flow(spline6))	voltage
	271	v(n.x1.xm7.nsg13_lv_pmos#flow(spline7))	voltage
	272	v(n.x1.xm7.nsg13_lv_pmos#flow(spline8))	voltage
	273	v(n.x1.xm7.nsg13_lv_pmos#flow(spline9))	voltage
	274	v(n.x1.xm7.nsg13_lv_pmos#implicit_equation_0)	voltage
	275	v(n.x1.xm7.nsg13_lv_pmos#implicit_equation_1)	voltage
	276	v(n.x1.xm7.nsg13_lv_pmos#implicit_equation_2)	voltage
	277	v(n.x1.xm9.nsg13_lv_pmos#bd)	voltage
	278	v(n.x1.xm9.nsg13_lv_pmos#bi)	voltage
	279	v(n.x1.xm9.nsg13_lv_pmos#bp)	voltage
	280	v(n.x1.xm9.nsg13_lv_pmos#bs)	voltage
	281	v(n.x1.xm9.nsg13_lv_pmos#di)	voltage
	282	v(n.x1.xm9.nsg13_lv_pmos#gp)	voltage
	283	v(n.x1.xm9.nsg13_lv_pmos#int1)	voltage
	284	v(n.x1.xm9.nsg13_lv_pmos#int2)	voltage
	285	v(n.x1.xm9.nsg13_lv_pmos#int3)	voltage
	286	v(n.x1.xm9.nsg13_lv_pmos#int4)	voltage
	287	v(n.x1.xm9.nsg13_lv_pmos#int5)	voltage
	288	v(n.x1.xm9.nsg13_lv_pmos#int6)	voltage
	289	v(n.x1.xm9.nsg13_lv_pmos#int7)	voltage
	290	v(n.x1.xm9.nsg13_lv_pmos#int8)	voltage
	291	v(n.x1.xm9.nsg13_lv_pmos#int9)	voltage
	292	v(n.x1.xm9.nsg13_lv_pmos#noi)	voltage
	293	v(n.x1.xm9.nsg13_lv_pmos#si)	voltage
	294	v(n.x1.xm9.nsg13_lv_pmos#flow(noii))	voltage
	295	v(n.x1.xm9.nsg13_lv_pmos#flow(res1))	voltage
	296	v(n.x1.xm9.nsg13_lv_pmos#flow(res2))	voltage
	297	v(n.x1.xm9.nsg13_lv_pmos#flow(res3))	voltage
	298	v(n.x1.xm9.nsg13_lv_pmos#flow(res4))	voltage
	299	v(n.x1.xm9.nsg13_lv_pmos#flow(res5))	voltage
	300	v(n.x1.xm9.nsg13_lv_pmos#flow(res6))	voltage
	301	v(n.x1.xm9.nsg13_lv_pmos#flow(res7))	voltage
	302	v(n.x1.xm9.nsg13_lv_pmos#flow(res8))	voltage
	303	v(n.x1.xm9.nsg13_lv_pmos#flow(res9))	voltage
	304	v(n.x1.xm9.nsg13_lv_pmos#flow(spline1))	voltage
	305	v(n.x1.xm9.nsg13_lv_pmos#flow(spline2))	voltage
	306	v(n.x1.xm9.nsg13_lv_pmos#flow(spline3))	voltage
	307	v(n.x1.xm9.nsg13_lv_pmos#flow(spline4))	voltage
	308	v(n.x1.xm9.nsg13_lv_pmos#flow(spline5))	voltage
	309	v(n.x1.xm9.nsg13_lv_pmos#flow(spline6))	voltage
	310	v(n.x1.xm9.nsg13_lv_pmos#flow(spline7))	voltage
	311	v(n.x1.xm9.nsg13_lv_pmos#flow(spline8))	voltage
	312	v(n.x1.xm9.nsg13_lv_pmos#flow(spline9))	voltage
	313	v(n.x1.xm9.nsg13_lv_pmos#implicit_equation_0)	voltage
	314	v(n.x1.xm9.nsg13_lv_pmos#implicit_equation_1)	voltage
	315	v(n.x1.xm9.nsg13_lv_pmos#implicit_equation_2)	voltage
	316	v(n.x2.xm1.nsg13_lv_pmos#bd)	voltage
	317	v(n.x2.xm1.nsg13_lv_pmos#bi)	voltage
	318	v(n.x2.xm1.nsg13_lv_pmos#bp)	voltage
	319	v(n.x2.xm1.nsg13_lv_pmos#bs)	voltage
	320	v(n.x2.xm1.nsg13_lv_pmos#di)	voltage
	321	v(n.x2.xm1.nsg13_lv_pmos#gp)	voltage
	322	v(n.x2.xm1.nsg13_lv_pmos#int1)	voltage
	323	v(n.x2.xm1.nsg13_lv_pmos#int2)	voltage
	324	v(n.x2.xm1.nsg13_lv_pmos#int3)	voltage
	325	v(n.x2.xm1.nsg13_lv_pmos#int4)	voltage
	326	v(n.x2.xm1.nsg13_lv_pmos#int5)	voltage
	327	v(n.x2.xm1.nsg13_lv_pmos#int6)	voltage
	328	v(n.x2.xm1.nsg13_lv_pmos#int7)	voltage
	329	v(n.x2.xm1.nsg13_lv_pmos#int8)	voltage
	330	v(n.x2.xm1.nsg13_lv_pmos#int9)	voltage
	331	v(n.x2.xm1.nsg13_lv_pmos#noi)	voltage
	332	v(n.x2.xm1.nsg13_lv_pmos#si)	voltage
	333	v(n.x2.xm1.nsg13_lv_pmos#flow(noii))	voltage
	334	v(n.x2.xm1.nsg13_lv_pmos#flow(res1))	voltage
	335	v(n.x2.xm1.nsg13_lv_pmos#flow(res2))	voltage
	336	v(n.x2.xm1.nsg13_lv_pmos#flow(res3))	voltage
	337	v(n.x2.xm1.nsg13_lv_pmos#flow(res4))	voltage
	338	v(n.x2.xm1.nsg13_lv_pmos#flow(res5))	voltage
	339	v(n.x2.xm1.nsg13_lv_pmos#flow(res6))	voltage
	340	v(n.x2.xm1.nsg13_lv_pmos#flow(res7))	voltage
	341	v(n.x2.xm1.nsg13_lv_pmos#flow(res8))	voltage
	342	v(n.x2.xm1.nsg13_lv_pmos#flow(res9))	voltage
	343	v(n.x2.xm1.nsg13_lv_pmos#flow(spline1))	voltage
	344	v(n.x2.xm1.nsg13_lv_pmos#flow(spline2))	voltage
	345	v(n.x2.xm1.nsg13_lv_pmos#flow(spline3))	voltage
	346	v(n.x2.xm1.nsg13_lv_pmos#flow(spline4))	voltage
	347	v(n.x2.xm1.nsg13_lv_pmos#flow(spline5))	voltage
	348	v(n.x2.xm1.nsg13_lv_pmos#flow(spline6))	voltage
	349	v(n.x2.xm1.nsg13_lv_pmos#flow(spline7))	voltage
	350	v(n.x2.xm1.nsg13_lv_pmos#flow(spline8))	voltage
	351	v(n.x2.xm1.nsg13_lv_pmos#flow(spline9))	voltage
	352	v(n.x2.xm1.nsg13_lv_pmos#implicit_equation_0)	voltage
	353	v(n.x2.xm1.nsg13_lv_pmos#implicit_equation_1)	voltage
	354	v(n.x2.xm1.nsg13_lv_pmos#implicit_equation_2)	voltage
	355	v(n.x2.xm2.nsg13_lv_pmos#bd)	voltage
	356	v(n.x2.xm2.nsg13_lv_pmos#bi)	voltage
	357	v(n.x2.xm2.nsg13_lv_pmos#bp)	voltage
	358	v(n.x2.xm2.nsg13_lv_pmos#bs)	voltage
	359	v(n.x2.xm2.nsg13_lv_pmos#di)	voltage
	360	v(n.x2.xm2.nsg13_lv_pmos#gp)	voltage
	361	v(n.x2.xm2.nsg13_lv_pmos#int1)	voltage
	362	v(n.x2.xm2.nsg13_lv_pmos#int2)	voltage
	363	v(n.x2.xm2.nsg13_lv_pmos#int3)	voltage
	364	v(n.x2.xm2.nsg13_lv_pmos#int4)	voltage
	365	v(n.x2.xm2.nsg13_lv_pmos#int5)	voltage
	366	v(n.x2.xm2.nsg13_lv_pmos#int6)	voltage
	367	v(n.x2.xm2.nsg13_lv_pmos#int7)	voltage
	368	v(n.x2.xm2.nsg13_lv_pmos#int8)	voltage
	369	v(n.x2.xm2.nsg13_lv_pmos#int9)	voltage
	370	v(n.x2.xm2.nsg13_lv_pmos#noi)	voltage
	371	v(n.x2.xm2.nsg13_lv_pmos#si)	voltage
	372	v(n.x2.xm2.nsg13_lv_pmos#flow(noii))	voltage
	373	v(n.x2.xm2.nsg13_lv_pmos#flow(res1))	voltage
	374	v(n.x2.xm2.nsg13_lv_pmos#flow(res2))	voltage
	375	v(n.x2.xm2.nsg13_lv_pmos#flow(res3))	voltage
	376	v(n.x2.xm2.nsg13_lv_pmos#flow(res4))	voltage
	377	v(n.x2.xm2.nsg13_lv_pmos#flow(res5))	voltage
	378	v(n.x2.xm2.nsg13_lv_pmos#flow(res6))	voltage
	379	v(n.x2.xm2.nsg13_lv_pmos#flow(res7))	voltage
	380	v(n.x2.xm2.nsg13_lv_pmos#flow(res8))	voltage
	381	v(n.x2.xm2.nsg13_lv_pmos#flow(res9))	voltage
	382	v(n.x2.xm2.nsg13_lv_pmos#flow(spline1))	voltage
	383	v(n.x2.xm2.nsg13_lv_pmos#flow(spline2))	voltage
	384	v(n.x2.xm2.nsg13_lv_pmos#flow(spline3))	voltage
	385	v(n.x2.xm2.nsg13_lv_pmos#flow(spline4))	voltage
	386	v(n.x2.xm2.nsg13_lv_pmos#flow(spline5))	voltage
	387	v(n.x2.xm2.nsg13_lv_pmos#flow(spline6))	voltage
	388	v(n.x2.xm2.nsg13_lv_pmos#flow(spline7))	voltage
	389	v(n.x2.xm2.nsg13_lv_pmos#flow(spline8))	voltage
	390	v(n.x2.xm2.nsg13_lv_pmos#flow(spline9))	voltage
	391	v(n.x2.xm2.nsg13_lv_pmos#implicit_equation_0)	voltage
	392	v(n.x2.xm2.nsg13_lv_pmos#implicit_equation_1)	voltage
	393	v(n.x2.xm2.nsg13_lv_pmos#implicit_equation_2)	voltage
	394	v(n.x2.xm3.nsg13_lv_nmos#bd)	voltage
	395	v(n.x2.xm3.nsg13_lv_nmos#bi)	voltage
	396	v(n.x2.xm3.nsg13_lv_nmos#bp)	voltage
	397	v(n.x2.xm3.nsg13_lv_nmos#bs)	voltage
	398	v(n.x2.xm3.nsg13_lv_nmos#di)	voltage
	399	v(n.x2.xm3.nsg13_lv_nmos#gp)	voltage
	400	v(n.x2.xm3.nsg13_lv_nmos#int1)	voltage
	401	v(n.x2.xm3.nsg13_lv_nmos#int2)	voltage
	402	v(n.x2.xm3.nsg13_lv_nmos#int3)	voltage
	403	v(n.x2.xm3.nsg13_lv_nmos#int4)	voltage
	404	v(n.x2.xm3.nsg13_lv_nmos#int5)	voltage
	405	v(n.x2.xm3.nsg13_lv_nmos#int6)	voltage
	406	v(n.x2.xm3.nsg13_lv_nmos#int7)	voltage
	407	v(n.x2.xm3.nsg13_lv_nmos#int8)	voltage
	408	v(n.x2.xm3.nsg13_lv_nmos#int9)	voltage
	409	v(n.x2.xm3.nsg13_lv_nmos#noi)	voltage
	410	v(n.x2.xm3.nsg13_lv_nmos#si)	voltage
	411	v(n.x2.xm3.nsg13_lv_nmos#flow(noii))	voltage
	412	v(n.x2.xm3.nsg13_lv_nmos#flow(res1))	voltage
	413	v(n.x2.xm3.nsg13_lv_nmos#flow(res2))	voltage
	414	v(n.x2.xm3.nsg13_lv_nmos#flow(res3))	voltage
	415	v(n.x2.xm3.nsg13_lv_nmos#flow(res4))	voltage
	416	v(n.x2.xm3.nsg13_lv_nmos#flow(res5))	voltage
	417	v(n.x2.xm3.nsg13_lv_nmos#flow(res6))	voltage
	418	v(n.x2.xm3.nsg13_lv_nmos#flow(res7))	voltage
	419	v(n.x2.xm3.nsg13_lv_nmos#flow(res8))	voltage
	420	v(n.x2.xm3.nsg13_lv_nmos#flow(res9))	voltage
	421	v(n.x2.xm3.nsg13_lv_nmos#flow(spline1))	voltage
	422	v(n.x2.xm3.nsg13_lv_nmos#flow(spline2))	voltage
	423	v(n.x2.xm3.nsg13_lv_nmos#flow(spline3))	voltage
	424	v(n.x2.xm3.nsg13_lv_nmos#flow(spline4))	voltage
	425	v(n.x2.xm3.nsg13_lv_nmos#flow(spline5))	voltage
	426	v(n.x2.xm3.nsg13_lv_nmos#flow(spline6))	voltage
	427	v(n.x2.xm3.nsg13_lv_nmos#flow(spline7))	voltage
	428	v(n.x2.xm3.nsg13_lv_nmos#flow(spline8))	voltage
	429	v(n.x2.xm3.nsg13_lv_nmos#flow(spline9))	voltage
	430	v(n.x2.xm3.nsg13_lv_nmos#implicit_equation_0)	voltage
	431	v(n.x2.xm3.nsg13_lv_nmos#implicit_equation_1)	voltage
	432	v(n.x2.xm3.nsg13_lv_nmos#implicit_equation_2)	voltage
	433	v(n.x2.xm4.nsg13_lv_nmos#bd)	voltage
	434	v(n.x2.xm4.nsg13_lv_nmos#bi)	voltage
	435	v(n.x2.xm4.nsg13_lv_nmos#bp)	voltage
	436	v(n.x2.xm4.nsg13_lv_nmos#bs)	voltage
	437	v(n.x2.xm4.nsg13_lv_nmos#di)	voltage
	438	v(n.x2.xm4.nsg13_lv_nmos#gp)	voltage
	439	v(n.x2.xm4.nsg13_lv_nmos#int1)	voltage
	440	v(n.x2.xm4.nsg13_lv_nmos#int2)	voltage
	441	v(n.x2.xm4.nsg13_lv_nmos#int3)	voltage
	442	v(n.x2.xm4.nsg13_lv_nmos#int4)	voltage
	443	v(n.x2.xm4.nsg13_lv_nmos#int5)	voltage
	444	v(n.x2.xm4.nsg13_lv_nmos#int6)	voltage
	445	v(n.x2.xm4.nsg13_lv_nmos#int7)	voltage
	446	v(n.x2.xm4.nsg13_lv_nmos#int8)	voltage
	447	v(n.x2.xm4.nsg13_lv_nmos#int9)	voltage
	448	v(n.x2.xm4.nsg13_lv_nmos#noi)	voltage
	449	v(n.x2.xm4.nsg13_lv_nmos#si)	voltage
	450	v(n.x2.xm4.nsg13_lv_nmos#flow(noii))	voltage
	451	v(n.x2.xm4.nsg13_lv_nmos#flow(res1))	voltage
	452	v(n.x2.xm4.nsg13_lv_nmos#flow(res2))	voltage
	453	v(n.x2.xm4.nsg13_lv_nmos#flow(res3))	voltage
	454	v(n.x2.xm4.nsg13_lv_nmos#flow(res4))	voltage
	455	v(n.x2.xm4.nsg13_lv_nmos#flow(res5))	voltage
	456	v(n.x2.xm4.nsg13_lv_nmos#flow(res6))	voltage
	457	v(n.x2.xm4.nsg13_lv_nmos#flow(res7))	voltage
	458	v(n.x2.xm4.nsg13_lv_nmos#flow(res8))	voltage
	459	v(n.x2.xm4.nsg13_lv_nmos#flow(res9))	voltage
	460	v(n.x2.xm4.nsg13_lv_nmos#flow(spline1))	voltage
	461	v(n.x2.xm4.nsg13_lv_nmos#flow(spline2))	voltage
	462	v(n.x2.xm4.nsg13_lv_nmos#flow(spline3))	voltage
	463	v(n.x2.xm4.nsg13_lv_nmos#flow(spline4))	voltage
	464	v(n.x2.xm4.nsg13_lv_nmos#flow(spline5))	voltage
	465	v(n.x2.xm4.nsg13_lv_nmos#flow(spline6))	voltage
	466	v(n.x2.xm4.nsg13_lv_nmos#flow(spline7))	voltage
	467	v(n.x2.xm4.nsg13_lv_nmos#flow(spline8))	voltage
	468	v(n.x2.xm4.nsg13_lv_nmos#flow(spline9))	voltage
	469	v(n.x2.xm4.nsg13_lv_nmos#implicit_equation_0)	voltage
	470	v(n.x2.xm4.nsg13_lv_nmos#implicit_equation_1)	voltage
	471	v(n.x2.xm4.nsg13_lv_nmos#implicit_equation_2)	voltage
	472	v(n.x2.xm5.nsg13_lv_pmos#bd)	voltage
	473	v(n.x2.xm5.nsg13_lv_pmos#bi)	voltage
	474	v(n.x2.xm5.nsg13_lv_pmos#bp)	voltage
	475	v(n.x2.xm5.nsg13_lv_pmos#bs)	voltage
	476	v(n.x2.xm5.nsg13_lv_pmos#di)	voltage
	477	v(n.x2.xm5.nsg13_lv_pmos#gp)	voltage
	478	v(n.x2.xm5.nsg13_lv_pmos#int1)	voltage
	479	v(n.x2.xm5.nsg13_lv_pmos#int2)	voltage
	480	v(n.x2.xm5.nsg13_lv_pmos#int3)	voltage
	481	v(n.x2.xm5.nsg13_lv_pmos#int4)	voltage
	482	v(n.x2.xm5.nsg13_lv_pmos#int5)	voltage
	483	v(n.x2.xm5.nsg13_lv_pmos#int6)	voltage
	484	v(n.x2.xm5.nsg13_lv_pmos#int7)	voltage
	485	v(n.x2.xm5.nsg13_lv_pmos#int8)	voltage
	486	v(n.x2.xm5.nsg13_lv_pmos#int9)	voltage
	487	v(n.x2.xm5.nsg13_lv_pmos#noi)	voltage
	488	v(n.x2.xm5.nsg13_lv_pmos#si)	voltage
	489	v(n.x2.xm5.nsg13_lv_pmos#flow(noii))	voltage
	490	v(n.x2.xm5.nsg13_lv_pmos#flow(res1))	voltage
	491	v(n.x2.xm5.nsg13_lv_pmos#flow(res2))	voltage
	492	v(n.x2.xm5.nsg13_lv_pmos#flow(res3))	voltage
	493	v(n.x2.xm5.nsg13_lv_pmos#flow(res4))	voltage
	494	v(n.x2.xm5.nsg13_lv_pmos#flow(res5))	voltage
	495	v(n.x2.xm5.nsg13_lv_pmos#flow(res6))	voltage
	496	v(n.x2.xm5.nsg13_lv_pmos#flow(res7))	voltage
	497	v(n.x2.xm5.nsg13_lv_pmos#flow(res8))	voltage
	498	v(n.x2.xm5.nsg13_lv_pmos#flow(res9))	voltage
	499	v(n.x2.xm5.nsg13_lv_pmos#flow(spline1))	voltage
	500	v(n.x2.xm5.nsg13_lv_pmos#flow(spline2))	voltage
	501	v(n.x2.xm5.nsg13_lv_pmos#flow(spline3))	voltage
	502	v(n.x2.xm5.nsg13_lv_pmos#flow(spline4))	voltage
	503	v(n.x2.xm5.nsg13_lv_pmos#flow(spline5))	voltage
	504	v(n.x2.xm5.nsg13_lv_pmos#flow(spline6))	voltage
	505	v(n.x2.xm5.nsg13_lv_pmos#flow(spline7))	voltage
	506	v(n.x2.xm5.nsg13_lv_pmos#flow(spline8))	voltage
	507	v(n.x2.xm5.nsg13_lv_pmos#flow(spline9))	voltage
	508	v(n.x2.xm5.nsg13_lv_pmos#implicit_equation_0)	voltage
	509	v(n.x2.xm5.nsg13_lv_pmos#implicit_equation_1)	voltage
	510	v(n.x2.xm5.nsg13_lv_pmos#implicit_equation_2)	voltage
	511	v(n.x2.xm6.nsg13_lv_nmos#bd)	voltage
	512	v(n.x2.xm6.nsg13_lv_nmos#bi)	voltage
	513	v(n.x2.xm6.nsg13_lv_nmos#bp)	voltage
	514	v(n.x2.xm6.nsg13_lv_nmos#bs)	voltage
	515	v(n.x2.xm6.nsg13_lv_nmos#di)	voltage
	516	v(n.x2.xm6.nsg13_lv_nmos#gp)	voltage
	517	v(n.x2.xm6.nsg13_lv_nmos#int1)	voltage
	518	v(n.x2.xm6.nsg13_lv_nmos#int2)	voltage
	519	v(n.x2.xm6.nsg13_lv_nmos#int3)	voltage
	520	v(n.x2.xm6.nsg13_lv_nmos#int4)	voltage
	521	v(n.x2.xm6.nsg13_lv_nmos#int5)	voltage
	522	v(n.x2.xm6.nsg13_lv_nmos#int6)	voltage
	523	v(n.x2.xm6.nsg13_lv_nmos#int7)	voltage
	524	v(n.x2.xm6.nsg13_lv_nmos#int8)	voltage
	525	v(n.x2.xm6.nsg13_lv_nmos#int9)	voltage
	526	v(n.x2.xm6.nsg13_lv_nmos#noi)	voltage
	527	v(n.x2.xm6.nsg13_lv_nmos#si)	voltage
	528	v(n.x2.xm6.nsg13_lv_nmos#flow(noii))	voltage
	529	v(n.x2.xm6.nsg13_lv_nmos#flow(res1))	voltage
	530	v(n.x2.xm6.nsg13_lv_nmos#flow(res2))	voltage
	531	v(n.x2.xm6.nsg13_lv_nmos#flow(res3))	voltage
	532	v(n.x2.xm6.nsg13_lv_nmos#flow(res4))	voltage
	533	v(n.x2.xm6.nsg13_lv_nmos#flow(res5))	voltage
	534	v(n.x2.xm6.nsg13_lv_nmos#flow(res6))	voltage
	535	v(n.x2.xm6.nsg13_lv_nmos#flow(res7))	voltage
	536	v(n.x2.xm6.nsg13_lv_nmos#flow(res8))	voltage
	537	v(n.x2.xm6.nsg13_lv_nmos#flow(res9))	voltage
	538	v(n.x2.xm6.nsg13_lv_nmos#flow(spline1))	voltage
	539	v(n.x2.xm6.nsg13_lv_nmos#flow(spline2))	voltage
	540	v(n.x2.xm6.nsg13_lv_nmos#flow(spline3))	voltage
	541	v(n.x2.xm6.nsg13_lv_nmos#flow(spline4))	voltage
	542	v(n.x2.xm6.nsg13_lv_nmos#flow(spline5))	voltage
	543	v(n.x2.xm6.nsg13_lv_nmos#flow(spline6))	voltage
	544	v(n.x2.xm6.nsg13_lv_nmos#flow(spline7))	voltage
	545	v(n.x2.xm6.nsg13_lv_nmos#flow(spline8))	voltage
	546	v(n.x2.xm6.nsg13_lv_nmos#flow(spline9))	voltage
	547	v(n.x2.xm6.nsg13_lv_nmos#implicit_equation_0)	voltage
	548	v(n.x2.xm6.nsg13_lv_nmos#implicit_equation_1)	voltage
	549	v(n.x2.xm6.nsg13_lv_nmos#implicit_equation_2)	voltage
	550	v(n.x2.xm7.nsg13_lv_pmos#bd)	voltage
	551	v(n.x2.xm7.nsg13_lv_pmos#bi)	voltage
	552	v(n.x2.xm7.nsg13_lv_pmos#bp)	voltage
	553	v(n.x2.xm7.nsg13_lv_pmos#bs)	voltage
	554	v(n.x2.xm7.nsg13_lv_pmos#di)	voltage
	555	v(n.x2.xm7.nsg13_lv_pmos#gp)	voltage
	556	v(n.x2.xm7.nsg13_lv_pmos#int1)	voltage
	557	v(n.x2.xm7.nsg13_lv_pmos#int2)	voltage
	558	v(n.x2.xm7.nsg13_lv_pmos#int3)	voltage
	559	v(n.x2.xm7.nsg13_lv_pmos#int4)	voltage
	560	v(n.x2.xm7.nsg13_lv_pmos#int5)	voltage
	561	v(n.x2.xm7.nsg13_lv_pmos#int6)	voltage
	562	v(n.x2.xm7.nsg13_lv_pmos#int7)	voltage
	563	v(n.x2.xm7.nsg13_lv_pmos#int8)	voltage
	564	v(n.x2.xm7.nsg13_lv_pmos#int9)	voltage
	565	v(n.x2.xm7.nsg13_lv_pmos#noi)	voltage
	566	v(n.x2.xm7.nsg13_lv_pmos#si)	voltage
	567	v(n.x2.xm7.nsg13_lv_pmos#flow(noii))	voltage
	568	v(n.x2.xm7.nsg13_lv_pmos#flow(res1))	voltage
	569	v(n.x2.xm7.nsg13_lv_pmos#flow(res2))	voltage
	570	v(n.x2.xm7.nsg13_lv_pmos#flow(res3))	voltage
	571	v(n.x2.xm7.nsg13_lv_pmos#flow(res4))	voltage
	572	v(n.x2.xm7.nsg13_lv_pmos#flow(res5))	voltage
	573	v(n.x2.xm7.nsg13_lv_pmos#flow(res6))	voltage
	574	v(n.x2.xm7.nsg13_lv_pmos#flow(res7))	voltage
	575	v(n.x2.xm7.nsg13_lv_pmos#flow(res8))	voltage
	576	v(n.x2.xm7.nsg13_lv_pmos#flow(res9))	voltage
	577	v(n.x2.xm7.nsg13_lv_pmos#flow(spline1))	voltage
	578	v(n.x2.xm7.nsg13_lv_pmos#flow(spline2))	voltage
	579	v(n.x2.xm7.nsg13_lv_pmos#flow(spline3))	voltage
	580	v(n.x2.xm7.nsg13_lv_pmos#flow(spline4))	voltage
	581	v(n.x2.xm7.nsg13_lv_pmos#flow(spline5))	voltage
	582	v(n.x2.xm7.nsg13_lv_pmos#flow(spline6))	voltage
	583	v(n.x2.xm7.nsg13_lv_pmos#flow(spline7))	voltage
	584	v(n.x2.xm7.nsg13_lv_pmos#flow(spline8))	voltage
	585	v(n.x2.xm7.nsg13_lv_pmos#flow(spline9))	voltage
	586	v(n.x2.xm7.nsg13_lv_pmos#implicit_equation_0)	voltage
	587	v(n.x2.xm7.nsg13_lv_pmos#implicit_equation_1)	voltage
	588	v(n.x2.xm7.nsg13_lv_pmos#implicit_equation_2)	voltage
	589	v(n.x2.xm9.nsg13_lv_pmos#bd)	voltage
	590	v(n.x2.xm9.nsg13_lv_pmos#bi)	voltage
	591	v(n.x2.xm9.nsg13_lv_pmos#bp)	voltage
	592	v(n.x2.xm9.nsg13_lv_pmos#bs)	voltage
	593	v(n.x2.xm9.nsg13_lv_pmos#di)	voltage
	594	v(n.x2.xm9.nsg13_lv_pmos#gp)	voltage
	595	v(n.x2.xm9.nsg13_lv_pmos#int1)	voltage
	596	v(n.x2.xm9.nsg13_lv_pmos#int2)	voltage
	597	v(n.x2.xm9.nsg13_lv_pmos#int3)	voltage
	598	v(n.x2.xm9.nsg13_lv_pmos#int4)	voltage
	599	v(n.x2.xm9.nsg13_lv_pmos#int5)	voltage
	600	v(n.x2.xm9.nsg13_lv_pmos#int6)	voltage
	601	v(n.x2.xm9.nsg13_lv_pmos#int7)	voltage
	602	v(n.x2.xm9.nsg13_lv_pmos#int8)	voltage
	603	v(n.x2.xm9.nsg13_lv_pmos#int9)	voltage
	604	v(n.x2.xm9.nsg13_lv_pmos#noi)	voltage
	605	v(n.x2.xm9.nsg13_lv_pmos#si)	voltage
	606	v(n.x2.xm9.nsg13_lv_pmos#flow(noii))	voltage
	607	v(n.x2.xm9.nsg13_lv_pmos#flow(res1))	voltage
	608	v(n.x2.xm9.nsg13_lv_pmos#flow(res2))	voltage
	609	v(n.x2.xm9.nsg13_lv_pmos#flow(res3))	voltage
	610	v(n.x2.xm9.nsg13_lv_pmos#flow(res4))	voltage
	611	v(n.x2.xm9.nsg13_lv_pmos#flow(res5))	voltage
	612	v(n.x2.xm9.nsg13_lv_pmos#flow(res6))	voltage
	613	v(n.x2.xm9.nsg13_lv_pmos#flow(res7))	voltage
	614	v(n.x2.xm9.nsg13_lv_pmos#flow(res8))	voltage
	615	v(n.x2.xm9.nsg13_lv_pmos#flow(res9))	voltage
	616	v(n.x2.xm9.nsg13_lv_pmos#flow(spline1))	voltage
	617	v(n.x2.xm9.nsg13_lv_pmos#flow(spline2))	voltage
	618	v(n.x2.xm9.nsg13_lv_pmos#flow(spline3))	voltage
	619	v(n.x2.xm9.nsg13_lv_pmos#flow(spline4))	voltage